42
Lattice="7.94875485 -4.997e-05 4.90143315 -3.97456407 6.88389431 4.90125479 -3.97443877 -6.88377714 4.90124571" Properties=species:S:1:pos:R:3:forces:R:3 pbc="T T T" energy=-311.78921226 stress="0.0182252587392 -0.000259929994355 0.00562047564113 -0.000259929994355 0.0203235315241 -0.0056400132936 0.00562047564113 -0.0056400132936 0.0212252419793" free_energy=-311.78921226
Al       2.06431498       0.32946941       6.64619220      -1.17472396       0.80257011      -0.22558447 
C       0.45354344      -2.90930619       4.56610161      -0.83449173      -2.03091242      -1.94967959 
H       0.07848447      -2.05679382       5.01956828      -1.06179303       1.79798802       1.13108555 
H       0.05888788      -3.80077473       5.09647066       0.34425125       0.33989819      -0.15657845 
H       0.09200188      -2.92158328       3.48958824       0.48064516      -0.02820056       0.96858562 
H       1.52802207      -2.91033876       4.58321789       0.95774100      -0.34158574      -0.03286544 
H       1.72699016      -1.20484931       4.84686198      -0.35959329       1.79322103      -0.28971321 
O       1.88028602      -1.16309027      12.36146257       0.11573832      -0.40377797      -0.48546922 
O      -1.03151502       5.09719259       4.83865887       0.26283745       0.61415297      -0.32906421 
O      -4.30058622      -3.25193201       7.74011310      -0.13452195       1.69100409      -0.06533371 
O      -3.47592729      -0.74026586       7.74991547       0.50170257       0.53640309       0.21984736 
O      -2.10581263       0.33979013       9.82923810      -0.42545786      -0.22971467       1.34037053 
O      -1.85151994       1.49711895       2.59013662      -1.05240612      -0.20721251      -0.76432744 
O      -1.73382952       1.00336303       7.25304292       0.20748640      -0.80745842       1.05084366 
O      -0.75448625       1.90488804       4.95302885      -0.12231359       0.24742073      -0.08344267 
O      -0.97431431       3.55483559       6.99970032       0.10408491      -0.15282410      -0.06738708 
O      -1.02577504      -1.52581922       8.31352951      -0.61131057       0.99233203      -0.51398491 
O      -0.49329228      -5.75631287       8.23293381      -1.97497013      -0.21536691       0.02806584 
O      -0.69775122      -0.97442300      11.78752926       0.08623623      -0.04401069      -0.43678772 
O       0.72312320       1.34404389       2.84689008       1.89272448      -1.16843121      -0.25561734 
O       0.68921141       5.58748522       6.89045960       0.99821809       0.93964561      -0.94788529 
O       0.92658340       1.59455590       7.01904352      -1.58302895       0.31837093      -0.42667298 
O       0.75959613      -3.42457137       7.71497630      -0.55512428      -1.14836430       0.82909141 
O       1.43835010      -4.83312706       9.87547877       0.38336537      -0.24310921      -0.08866381 
O       1.01080898      -1.85608125       9.87957628       0.15557614       0.45533359       0.71751538 
O       1.57382865      -1.15195264       7.35185998       0.13012702       0.81012481       0.02177765 
O       1.86711135      -5.72781860       7.36528483       0.96971738      -1.34027144      -0.77490826 
O       1.68568664      -0.16879385       4.79001329       0.53892136      -1.99050114       0.50608387 
O      -1.83517126       5.92656144       7.21160751      -1.73428709       1.91319547       0.84431603 
O       3.61261994       1.00071559       6.62440041       0.17791971      -0.74779410      -0.02792142 
O       4.42309591       3.48779943       7.02984321       0.16843971      -0.34701052      -0.35927805 
Si      -4.66967828      -1.69133321       8.14648853      -1.99525371      -1.64363212      -0.04910078 
Si      -2.05231094      -0.22673530       8.33892620       0.97643073       0.34917122      -2.50751163 
Si      -2.08656253      -0.23211444      11.38007033       0.48278132       0.39621875       0.94497349 
Si      -0.62500295       2.00551581       6.59555062       1.72058981      -0.34592329      -0.20361339 
Si      -0.59467299       2.13973532       3.35522277      -0.26119989      -0.75068256       0.58273513 
Si      -0.77444445       5.06500454       6.40894072       0.77742451      -1.70897940       0.64284433 
Si       0.92419536      -4.92860997       8.36025315      -1.47491625       0.95484908      -0.90428200 
Si       0.55552101      -1.92058364       8.32016743       0.94629210      -0.54267122      -0.15488019 
Si       0.64906466      -1.83623623      11.48295158       0.39216016      -0.37440026      -0.19960708 
Si       1.99283152       0.39869732       3.20398901       1.05501751       0.63638956       0.66826447 
Si       4.85579304       1.95697741       6.49060853       0.52746143       1.22400232       1.80607368 
